# vtk DataFile Version 2.0
Malla_Ejemplo, Created by Gmsh 4.15.2 
ASCII
DATASET UNSTRUCTURED_GRID
POINTS 12 double
0 0 0
1.5 0 0
1.5 1.5 0
0 1.5 0
0.7499999999971427 0 0
1.5 0.7499999999971427 0
0.7500000000020832 1.5 0
0 0.7500000000020832 0
1.059374999999371 0.4406249999994147 0
0.9375000000006177 0.9374999999993827 0
0.5281249999996879 0.5343750000002845 0
0.4218750000009963 1.078125000000826 0

CELLS 22 80
2 0 4
2 4 1
2 1 5
2 5 2
2 2 6
2 6 3
2 3 7
2 7 0
3 7 0 10
3 5 2 9
3 2 6 9
3 0 4 10
3 6 3 11
3 3 7 11
3 4 1 8
3 1 5 8
3 7 10 11
3 8 5 9
3 8 9 10
3 9 6 11
3 10 9 11
3 4 8 10

CELL_TYPES 22
3
3
3
3
3
3
3
3
5
5
5
5
5
5
5
5
5
5
5
5
5
5

CELL_DATA 22
SCALARS CellEntityIds int 1
LOOKUP_TABLE default
4
4
2
2
3
3
1
1
5
5
5
5
5
5
5
5
5
5
5
5
5
5
